t 0 /NodeList/7/$ns3::Ipv4L3Protocol/Tx(1) ns3::Ipv4Header (tos 0x0 DSCP Default ECN Not-ECT ttl 64 id 0 protocol 1 offset (bytes) 0 flags [none] length: 84 10.1.7.1 > 10.1.7.2) ns3::Icmpv4Header (type=8, code=0) ns3::Icmpv4Echo (identifier=0, sequence=0, data size=56)
r 0.00100688 /NodeList/2/$ns3::Ipv4L3Protocol/Rx(6) ns3::Ipv4Header (tos 0x0 DSCP Default ECN Not-ECT ttl 64 id 0 protocol 1 offset (bytes) 0 flags [none] length: 84 10.1.7.1 > 10.1.7.2) ns3::Icmpv4Header (type=8, code=0) ns3::Icmpv4Echo (identifier=0, sequence=0, data size=56)
t 0.00100688 /NodeList/2/$ns3::Ipv4L3Protocol/Tx(6) ns3::Ipv4Header (tos 0x0 DSCP Default ECN Not-ECT ttl 64 id 0 protocol 1 offset (bytes) 0 flags [none] length: 84 10.1.7.2 > 10.1.7.1) ns3::Icmpv4Header (type=0, code=0) ns3::Icmpv4Echo (identifier=0, sequence=0, data size=56)
r 0.00201376 /NodeList/7/$ns3::Ipv4L3Protocol/Rx(1) ns3::Ipv4Header (tos 0x0 DSCP Default ECN Not-ECT ttl 64 id 0 protocol 1 offset (bytes) 0 flags [none] length: 84 10.1.7.2 > 10.1.7.1) ns3::Icmpv4Header (type=0, code=0) ns3::Icmpv4Echo (identifier=0, sequence=0, data size=56)
t 1 /NodeList/7/$ns3::Ipv4L3Protocol/Tx(1) ns3::Ipv4Header (tos 0x0 DSCP Default ECN Not-ECT ttl 64 id 1 protocol 1 offset (bytes) 0 flags [none] length: 84 10.1.7.1 > 10.1.7.2) ns3::Icmpv4Header (type=8, code=0) ns3::Icmpv4Echo (identifier=0, sequence=1, data size=56)
r 1.00101 /NodeList/2/$ns3::Ipv4L3Protocol/Rx(6) ns3::Ipv4Header (tos 0x0 DSCP Default ECN Not-ECT ttl 64 id 1 protocol 1 offset (bytes) 0 flags [none] length: 84 10.1.7.1 > 10.1.7.2) ns3::Icmpv4Header (type=8, code=0) ns3::Icmpv4Echo (identifier=0, sequence=1, data size=56)
t 1.00101 /NodeList/2/$ns3::Ipv4L3Protocol/Tx(6) ns3::Ipv4Header (tos 0x0 DSCP Default ECN Not-ECT ttl 64 id 1 protocol 1 offset (bytes) 0 flags [none] length: 84 10.1.7.2 > 10.1.7.1) ns3::Icmpv4Header (type=0, code=0) ns3::Icmpv4Echo (identifier=0, sequence=1, data size=56)
r 1.00201 /NodeList/7/$ns3::Ipv4L3Protocol/Rx(1) ns3::Ipv4Header (tos 0x0 DSCP Default ECN Not-ECT ttl 64 id 1 protocol 1 offset (bytes) 0 flags [none] length: 84 10.1.7.2 > 10.1.7.1) ns3::Icmpv4Header (type=0, code=0) ns3::Icmpv4Echo (identifier=0, sequence=1, data size=56)
